256
Lattice="14.550543999751545 0.0 0.0 0.0 14.550543999751545 0.0 0.0 0.0 14.550543999751545" Properties=species:S:1:pos:R:3:momenta:R:3:forces:R:3 timestep=0 energy=0.0 pbc="T T T"
Cu      14.26950000      14.37250000       0.06399350      -2.19752557       0.73674376       0.20805735       0.45817800       0.69218700      -1.46415000
Cu       1.70451000       1.65024000      14.47410000      -2.11905938       0.63293084      -0.43258167       0.05314460       0.96278500      -0.32634800
Cu       1.86397000       0.05586690       1.72321000       0.23677330      -1.19725471      -3.17623425      -0.77062100      -0.50028400       1.17782000
Cu       0.01537170       1.71155000       1.67556000       1.08592445      -2.06042161       0.62628169      -0.71390600       0.31336800       0.43643000
Cu      14.43590000       0.09747190       3.63295000      -0.89213645      -0.77112811      -2.67578182       0.25048300      -0.48133400      -0.62943100
Cu       1.75213000       1.81433000       3.64162000      -2.69707877      -0.73640089       0.46895727      -0.04555980       0.32862500      -0.27024700
Cu       1.74138000       0.08596850       5.36145000       1.07281764       0.02741989       0.73343148      -0.01517690      -0.48245000       0.71587500
Cu      14.50010000       1.76352000       5.47657000      -1.86835444      -0.99634400      -2.03872357      -0.48557100      -0.14621300      -0.08311330
Cu       0.05264380      14.36440000       7.31289000      -2.07472524      -3.58254537      -0.11027511      -0.75108300       0.87507200      -0.96107700
Cu       1.83232000       1.75935000       7.23822000      -0.75428205       0.59653518       0.97264694      -0.78781900       0.33321500      -0.72321600
Cu       1.70508000       0.19430800       8.94329000       0.79200456      -0.48253957      -0.36438938       0.90153200      -1.10467000       1.14890000
Cu       0.03269860       1.90727000       9.12043000       1.65670469      -2.79594915      -0.03145848      -0.21055100      -0.42245800       0.27862000
Cu      -0.00005971      14.36740000      10.90240000       1.50528416      -0.79820862      -2.62906698       0.12157700       1.12218000       0.39580100
Cu       1.95928000       1.64059000      10.91990000      -2.32369641      -1.42968387       1.42498715      -1.01762000       0.37499800       0.08281360
Cu       1.66505000      14.40990000      12.74900000       0.19711064      -0.61966424       1.63180434      -0.58699300       0.53259200      -0.31543000
Cu      14.47940000       1.83375000      12.79800000      -3.35438595      -1.49056002      -0.28904139      -0.23970200      -1.45833000      -1.27800000
Cu      14.50100000       3.46104000      14.37770000      -0.81370907       0.04355679       1.21005746       0.53813200       1.06806000       1.69935000
Cu       1.97716000       5.35748000      -0.02721030      -1.28609119       4.31914680       0.20759868      -0.62904600      -0.52723500      -0.02148800
Cu       1.91236000       3.49640000       1.73792000      -1.48093369      -0.12395963      -0.54641489      -0.19800700       0.15409300      -0.08618110
Cu      -0.02228560       5.18089000       1.66972000      -1.83944959       0.45002873      -1.89792563       0.37547200       0.42146100       0.07431250
Cu      14.43410000       3.51003000       3.49201000       1.50983855       0.89055147       2.74285557       0.23761800      -0.24558400       0.37307800
Cu       1.74094000       5.20357000       3.56251000       2.82478930      -2.08636999      -0.98881373      -0.38285900       0.21750600      -0.07090570
Cu       1.66570000       3.54267000       5.47712000       0.18464170       0.84069901       0.40763603       0.70391800      -0.09446750      -0.67149200
Cu      14.43540000       5.28630000       5.40797000       0.71152642      -0.42353499       0.90671826       0.05490130       0.34182500      -0.30866700
Cu      14.50390000       3.51692000       7.16117000       0.28909056      -0.26607536       0.23956868      -0.17143400       0.66228400       0.92025300
Cu       1.76106000       5.45560000       7.05698000      -2.76640383      -1.65721576       2.99453091       0.22504900      -0.60256100       1.37362000
Cu       1.84981000       3.59814000       8.86794000      -1.69334683       5.74041411       2.09197888      -0.79457100       0.26680900       1.48210000
Cu       0.01645060       5.39631000       9.11943000      -0.65034621       0.15847401      -2.11570829      -0.03016390      -0.44443500      -1.42409000
Cu      14.44520000       3.61365000      10.86590000       0.32602446       0.72570066       0.57106877       0.74487500      -0.82870500       0.43430700
Cu       1.75265000       5.27146000      10.85000000       0.92227047      -0.55586331      -0.42783190       0.75187300      -0.09139000       0.43258100
Cu       1.78030000       3.55778000      12.60100000       0.60697211      -0.78303163      -0.26733364       0.61376500      -0.20578000       0.48632600
Cu      14.47040000       5.21919000      12.69290000       0.38715098      -1.29831171       2.20385255       0.49035600       1.10852000       0.42074700
Cu      14.46350000       7.16899000      14.37360000      -1.58304519      -0.48823321      -1.23796604       0.25144600      -0.39437300       0.96295500
Cu       1.74520000       7.07684000       1.85326000      -1.37430015       0.18893926       0.72782906      -0.72130800       0.60754000      -0.57992500
Cu      14.48690000       7.08252000       3.54035000       4.02414654       0.86357447      -0.47127263       0.45852700       0.13454900       0.81923600
Cu       1.84395000       7.10880000       5.49490000      -1.49340651      -0.00252717       0.43485369      -0.80878800       1.37850000      -0.87090400
Cu      14.48940000       7.10111000       7.23728000       0.23684187       0.64320862       1.92734803       0.29296200       0.32241100       0.11752400
Cu       1.81279000       7.10003000       9.31785000       2.86729263      -2.93371945       2.14646983      -0.36902400       0.79329800      -1.61788000
Cu      14.40060000       7.00038000      10.75820000      -0.42479586      -0.14814060      -2.58876321       0.24302300       1.41471000       1.34215000
Cu       1.71633000       7.00429000      12.78690000       0.95412532      -2.09163600      -0.54855494       0.28757700       0.66971400      -1.03843000
Cu       1.88051000       8.99152000      -0.01878230       4.54607705      -1.93002632       0.73224760      -0.96194500       0.09153810       0.06421920
Cu      14.33180000      10.93010000      14.45630000       1.23760376      -1.84466385      -0.03341383       1.32233000      -0.86896700       0.73146300
Cu      -0.03954610       9.11781000       1.68604000       1.23012524      -1.74712615      -1.37299982       0.12207600      -0.21202600       0.01250260
Cu       1.76359000      10.99120000       1.68420000       1.49682231       2.14979505      -1.47893468      -0.01886660      -0.54868900       0.12670800
Cu       1.72430000       9.14354000       3.58466000      -0.24333641      -0.67247123       0.32064718      -0.67848600      -0.51910700      -0.06220240
Cu      14.38680000      11.00510000       3.36459000      -1.03744996      -1.04853834      -2.54580703       0.70846600      -0.75036100       0.96372000
Cu      -0.01317430       9.03631000       5.33020000      -0.10187990       1.23390332      -1.85335213       0.17207000      -0.11465800      -0.05465760
Cu       1.77634000      10.86100000       5.49367000      -0.30097208       3.91421365       0.31334592      -0.45231100      -0.39460200      -0.84044600
Cu       1.80058000       9.04598000       7.34672000      -1.38464457       0.84108717       0.82877608       0.06127300      -0.86444500      -0.91631800
Cu       0.02512320      10.92690000       7.16634000       0.92934142       2.58790279       0.36112626      -0.35744000       0.11890800       0.51873700
Cu      14.50350000       8.94403000       8.92923000       0.47073956       0.74516033      -0.77768799      -0.31277500       0.29808700       0.52744800
Cu       1.80508000      10.77260000       9.02818000       0.24857719       1.84500025       1.66362037      -0.43801800       1.26188000       0.23835500
Cu       1.56562000       9.16947000      10.79780000      -1.12044466      -1.69185889       0.33870689       1.05923000      -1.37163000       0.88480300
Cu       0.04194040      10.85420000      10.95350000      -0.68872212       1.10438785       4.62757735      -0.67338800       0.69030700      -0.61758200
Cu      -0.04131290       8.91849000      12.77520000       0.21734274       0.70076149      -0.64576335       0.45330400       0.41496800      -0.84333500
Cu       1.72908000      11.00180000      12.81120000      -1.64859865      -0.00598910      -0.78952682       0.55161900      -0.48333400      -0.24507200
Cu       1.83423000      12.79770000       0.11035700      -1.49126517       0.79052309       0.16083078      -0.59905300      -0.44298100      -0.89652400
Cu      -0.02993450      12.82730000       1.78656000       0.04927967      -0.06556769       1.84528490       0.06366740      -0.59818800       0.17592300
Cu       1.76472000      12.81930000       3.55957000       2.14307344      -2.50697180       1.48500936       0.13551400      -0.08294150      -0.15355600
Cu      -0.02415370      12.80110000       5.29661000       0.84420537       2.10274380      -3.60366117      -0.09037080      -0.48393500       0.21695900
Cu       1.84090000      12.67850000       7.07814000      -1.02863230      -0.04710805       0.93922651      -0.78251500       0.71428000       1.37862000
Cu       0.15929800      12.84010000       9.10546000      -1.63417857       0.33936352       2.42248269      -0.51096000      -1.60656000      -0.32111900
Cu       1.91864000      12.75640000      10.77470000       1.29704372      -3.29420201      -0.02851262      -0.29117900      -0.16518500       0.71541200
Cu      14.49150000      12.57570000      12.75210000      -1.62897725      -0.63347944       0.13975314      -0.11766800       1.03742000      -0.20655100
Cu       3.44488000       0.08585470      14.47060000       0.17101217       2.79414421      -0.26929125       1.30862000      -0.92263600       0.90494500
Cu       5.30641000       1.73602000       0.05223740      -0.84750472      -0.39920782      -1.59066603       1.02054000       0.83522000      -0.29236000
Cu       5.47160000       0.07978000       1.69310000      -2.65537764      -1.76311180       0.36624413      -0.06084840      -0.78769400       0.49610400
Cu       3.58630000       1.69349000       1.80507000       3.44060883      -1.38886903      -1.68974989       0.38573500       0.75949400       0.39814400
Cu       3.56810000       0.18129500       3.81907000       0.71547916      -4.60127963      -0.95189988       0.65780300      -0.89266700      -1.12124000
Cu       5.57159000       1.87787000       3.54851000      -0.92637201       0.19804869       1.52229843      -0.50810000      -0.20872700       0.12288000
Cu       5.51744000      14.37610000       5.55745000       0.23362339      -0.84520812       3.51594388      -0.75210000       0.27379400      -0.72421000
Cu       3.76056000       1.71165000       5.56664000       0.31425421       0.51211464      -0.85290659      -0.40725000       0.92161200      -0.53560900
Cu       3.58146000       0.12154700       7.29444000       4.03493733      -0.06824081       1.71582766       0.40057800      -1.68957000      -0.10389100
Cu       5.47881000       1.72760000       7.24942000       3.12739747       2.66808335       0.04843995       0.22203800       0.19225500      -0.02095290
Cu       5.68630000      14.44610000       8.95760000       1.07167258       3.14132589      -3.13933334      -0.71182700      -0.14028300       0.11654300
Cu       3.67345000       1.80168000       9.00345000       0.73161360      -2.26314373      -3.44615950       0.07835930      -0.09571040       0.26225600
Cu       3.74113000       0.00731815      10.76090000      -2.01601631      -0.02501253      -0.50975399      -0.57984900      -0.02107450      -0.10827300
Cu       5.48128000       1.68285000      10.83170000      -1.48976429       0.29759769       2.53390351       0.05012270       0.61185100       0.24218100
Cu       5.43863000       0.13704000      12.73010000       1.36268128      -0.40908774      -0.51682042       0.78910500      -0.80253500      -0.06306000
Cu       3.68146000       1.57121000      12.74550000       2.76716074       1.45248169       0.69134219      -1.05095000       1.77095000      -0.94390900
Cu       3.67802000       3.48253000      14.46610000       0.47822067       1.53978495       1.76123570      -0.67761800       0.38039600       0.17284200
Cu       5.33742000       5.41904000       0.04247390      -0.86411789       1.73942121      -1.43174111       0.58359000       0.29486800      -0.21417900
Cu       5.33731000       3.85219000       1.91903000       2.86014405       1.78162695      -0.08985605       0.26428700      -1.29269000      -0.30680500
Cu       3.62268000       5.56604000       1.82454000       0.79989064       3.35121599      -0.52125706      -0.00904366      -0.74807200       0.06131190
Cu       3.65871000       3.50270000       3.74367000      -0.95224922      -0.51986875       0.25198457      -0.27464000      -0.24310200      -0.54263200
Cu       5.45359000       5.51738000       3.62292000      -2.20200233      -0.60376010       1.73202680       0.25192000      -0.17176100       0.29170700
Cu       5.41318000       3.58083000       5.52063000       1.81367588      -1.22606252       0.90888548       0.07234350       0.26596200      -0.43470000
Cu       3.51732000       5.40682000       5.17541000       1.02185893       3.03966724      -2.02778397       0.78753000      -0.58620200       1.60634000
Cu       3.43242000       3.57466000       7.23872000      -0.80742091      -1.32689309      -0.03690065       1.71806000       0.45170600      -0.94830600
Cu       5.35803000       5.45114000       7.20675000       1.60006593      -3.79662758      -2.35502725       0.64178200      -0.60768100      -0.44307100
Cu       5.43726000       3.53123000       9.06604000       0.38082335      -0.30146698      -0.75104739      -0.46700400       0.79264100      -0.41911300
Cu       3.60637000       5.49153000       8.90304000       0.88208315      -2.63821457       0.04643621      -0.06594110      -0.48574700       0.63463300
Cu       3.62841000       3.43571000      10.84660000       0.03029329       2.93013545       2.39945843       0.16615600       0.81369100       0.21671400
Cu       5.42812000       5.47451000      10.77220000      -1.43717532       0.60754335       0.34301933      -0.04381300      -0.31979300       0.08944990
Cu       5.38292000       3.66688000      12.74180000       0.51083113      -1.27357956       1.16525753       0.36823700      -0.41991000      -0.60329900
Cu       3.78842000       5.55054000      12.66440000       1.07144615       0.67671509      -0.24304658      -0.86608400      -0.64447400      -0.17158500
Cu       3.58847000       7.25550000      -0.01845590       0.75636516       3.49437522      -0.15775463       0.54520900       0.15702500       0.02035680
Cu       5.59000000       7.25978000       1.84243000      -1.21448893       1.86112176       2.38727673      -0.93002900      -0.10262800       0.07412740
Cu       3.45461000       7.13677000       3.62567000      -0.64629772       0.86169837      -0.76224576       0.44142900       1.09965000      -0.24651200
Cu       5.42538000       7.38625000       5.25137000      -0.99536713       0.14276266       0.84062785       0.24092300      -0.35990700       0.32657500
Cu       3.84192000       7.22444000       7.09216000      -0.79199809       4.29043603       4.42900853      -1.27304000       0.70416100       0.11274800
Cu       5.31827000       7.36774000       9.03253000       0.30606472      -1.45812940       0.43133374       0.59900000      -0.20034300       0.03073540
Cu       3.57000000       7.26932000      10.85230000       3.30602143      -0.60952943       1.05858517       0.28789700      -0.13728700       0.75995100
Cu       5.54244000       7.22500000      12.65490000       2.21260552      -1.54252147       1.31920756      -0.43344700       0.52968000       0.46382200
Cu       5.35123000       9.15444000       0.01169180       0.59440872      -0.76548688       0.46244139       0.41214900      -0.72815600      -0.03212180
Cu       3.59493000      10.76800000      14.42720000      -2.25658385      -0.39186192      -1.04546543       0.01193420       0.99707400       0.43432400
Cu       3.46573000       8.95112000       1.91275000      -2.34988416      -0.48620896       0.09921842       0.72175600       0.31030700      -0.43737900
Cu       5.38142000      10.96130000       1.85072000      -2.11236366      -1.54085239      -2.81483304      -0.27877000      -0.29536200      -0.35917500
Cu       5.46200000       9.12694000       3.53502000      -2.83379457       2.17745132      -1.03288263      -0.66069900       0.11756400       0.25483000
Cu       3.40363000      10.89740000       3.58935000      -0.71172049      -2.00437803       1.30643068       0.57334400       0.19410300      -0.36146000
Cu       3.54258000       9.04390000       5.31641000       1.73018951      -2.09225706       0.63982130       0.01752430       0.03375660       0.39007700
Cu       5.09304000      11.01050000       5.45841000      -2.19808193       3.31224490      -1.86409117       1.49340000      -0.84333000      -0.77213200
Cu       5.32628000       9.32201000       7.37008000      -0.58355129      -2.51470909      -4.86674105       0.43816800      -0.60088000      -0.57137600
Cu       3.49587000      10.92960000       7.29218000       0.42068203       1.29739307       1.14893548       0.01440830      -0.32086400       0.02009270
Cu       3.50622000       9.04765000       9.13576000      -1.75551684      -0.81370260       0.97291218       0.13310300      -0.01140440      -0.21172500
Cu       5.18641000      11.06380000       9.10060000      -0.71861030       0.61440857      -2.98562914       1.02474000      -0.47328400       0.61483800
Cu       5.37365000       9.10559000      10.78080000       1.23112152       2.46311639      -1.96146714      -0.34289500      -0.17080700       0.78259800
Cu       3.62008000      10.93200000      10.94530000       1.11763051      -3.38091009       0.14449967      -0.50355400       0.05260570       0.31058400
Cu       3.50560000       9.00747000      12.67270000       0.53860515      -2.19790726      -2.30126734       0.18621500      -0.08794320      -0.46718300
Cu       5.44600000      10.90630000      12.66130000       2.50622783       0.73045560      -0.63732932      -0.55634100      -0.57141700       0.22656200
Cu       5.47083000      12.67510000      14.33370000      -0.23163602      -0.09800996      -0.98973884      -0.47266800       0.30090200       0.88032200
Cu       3.65370000      12.78890000       1.70031000      -0.55286414      -1.99841980      -1.53552815      -0.08365230       0.00762402      -0.11373500
Cu       5.14460000      12.78530000       3.54098000       1.42445667      -1.38184983      -3.68001837       0.83516700       0.04191910       0.69395100
Cu       3.43235000      12.65340000       5.44353000      -1.93130724      -0.58917764       2.30869410       0.70936400       1.27538000      -0.60500800
Cu       5.46579000      12.56200000       7.24480000       0.26733041       2.36879393      -2.85771806      -0.00755224       0.81156700       0.11108300
Cu       3.55866000      12.80770000       9.03520000      -0.09243471       1.83679718      -0.55334287      -0.03395150       0.27478100      -0.43352900
Cu       5.40631000      12.90280000      11.09730000      -0.78596870      -0.07421650       3.27709070       0.34042000      -0.88470500      -0.91426300
Cu       3.54872000      13.00980000      12.75780000      -0.81221466      -2.96937178       1.62210038       0.32922300      -1.48999000      -0.35228600
Cu       7.18975000      -0.02036400      14.31640000      -0.91073570       1.13776299      -0.73425955       0.35913700       0.11996200       0.97136900
Cu       9.05324000       2.03229000      14.41540000      -1.50032867       0.22532133       0.37749166       0.15113900      -1.33654000       0.93760800
Cu       8.94187000      -0.00269704       1.60066000      -2.00148625      -1.56224638       1.43341019       0.15131600       0.14907600       0.40447500
Cu       7.25596000       1.98081000       1.76260000       1.76400457      -3.75415013      -2.07622612       0.16369300      -0.56985300       0.35171100
Cu       7.22603000      14.45050000       3.55047000       0.31539540       4.32902543       2.23564271      -0.15573100      -0.01165540       0.05487790
Cu       9.09115000       1.60940000       3.66506000       0.33055556       0.50096027       0.06694371       0.12599100       0.89699600      -1.15676000
Cu       9.08223000      14.49700000       5.29035000      -1.08992895      -1.02455016      -0.17045840       0.55927400      -0.85599000       0.63075600
Cu       7.30298000       1.70761000       5.24075000       1.82217008      -1.55699977       2.37011367      -0.69496100       0.24976400       0.91066300
Cu       7.37943000       0.05971050       7.03582000      -0.81533287       0.27578191       0.32615256      -0.30118500      -0.81271900       0.79292200
Cu       9.01623000       1.82190000       7.07510000      -0.80384985       0.49832532       0.51771318       0.43732800      -0.05095650       0.45265500
Cu       8.93212000       0.02556090       8.88792000      -2.00354349       0.68801049      -0.59738913      -0.27232900      -0.10387700       0.89832100
Cu       7.18551000       1.82807000       9.04831000       0.45884510      -0.57819341       0.92723242       0.88824100      -0.37495400      -0.33915800
Cu       7.34745000       0.05486650      10.95770000      -1.71924345      -1.62716585       0.27505476      -0.26127000      -0.26978900      -0.24985700
Cu       8.97445000       1.94876000      10.97480000       1.32607149       2.15815339      -1.03814217       0.36269600      -0.33608700      -0.82988200
Cu       9.01190000       0.11806800      12.70060000       2.41999201      -0.87077481      -0.61432512       0.35842500      -0.58208800       0.13442200
Cu       7.28104000       1.98505000      12.80070000       0.75942514      -0.00592291       1.05927092      -1.35774000      -0.78777800      -0.57121400
Cu       7.17776000       3.62534000       0.05623680      -0.77652351       2.17675264      -2.24778560      -0.46616600       0.53942100      -0.15248700
Cu       8.95490000       5.37487000       0.00446879       0.63400733      -0.39956622      -1.72379137       0.48771600       0.12965000      -0.22165800
Cu       9.27270000       3.49912000       1.86975000      -1.43575854       1.92085284       1.28035939      -1.46042000       0.50937400       0.04382410
Cu       7.39241000       5.27850000       1.90123000       0.24992151      -0.02805750      -1.52235665      -0.19051600       0.33167300       0.29583000
Cu       7.50249000       3.66112000       3.86849000       0.08562771       1.45111667      -3.20480270      -1.32862000      -0.33906700      -2.03824000
Cu       9.25825000       5.46349000       3.69339000      -0.24725616      -1.26142374       2.45749456      -0.62088000      -0.36926600      -0.52953300
Cu       9.15974000       3.53401000       5.38548000       2.56358468       0.25387490      -1.18995086       0.22077100      -0.12790400       1.21107000
Cu       7.28125000       5.44517000       5.33690000      -1.61021627       2.26402355      -2.11079161      -0.23709000       0.53558900       0.94774500
Cu       7.16426000       3.54003000       7.20761000      -1.54523211       0.89856694       2.28562456       0.55581300       0.63942400      -0.14332400
Cu       8.94036000       5.75223000       7.29841000       0.58108131      -1.24592975      -0.66196508       0.17850800      -2.08939000      -0.30457000
Cu       9.12310000       3.59697000       8.82225000       0.25977361       0.92833867      -0.95256622      -1.17255000       0.37989000       0.31785100
Cu       7.14008000       5.60808000       8.96503000       2.76735482       0.50024412       0.86424728      -0.08497330      -0.82346800       0.25676000
Cu       7.23611000       3.55051000      10.72500000      -2.99486084       0.96292357       2.09717373      -0.74328500       0.51714900       0.51487400
Cu       8.88370000       5.22636000      10.85000000      -2.27354637       0.94847762      -2.24541136       0.41764000       0.85643000      -0.69039000
Cu       8.93881000       3.61891000      12.73720000      -1.92901064       2.44348205      -0.21155401       0.79450100       1.02179000      -0.59940200
Cu       7.26268000       5.40546000      12.69430000      -0.18680116       0.68472409      -0.07671236      -0.96658100      -0.27481100       0.11406100
Cu       7.21768000       7.19197000       0.09779720      -2.53368356      -0.02813908      -2.42806570       0.07615070       0.02999350      -0.59097500
Cu       9.07373000       7.23081000       1.84553000       0.43389493       0.61674723      -0.94984264      -0.01602870       0.05119000      -0.21047400
Cu       7.38561000       7.30932000       3.58649000      -1.70618840      -2.30983916      -0.42870914      -0.46638400      -0.38174300       0.36643800
Cu       9.13322000       7.16368000       5.45488000       0.82299253       1.50915927       0.05756199      -0.32531500       0.58923100      -0.44228000
Cu       7.12746000       7.35897000       7.17059000       0.57274626      -0.01448367      -1.43086128      -0.40504000       0.52949900      -0.08622900
Cu       8.94455000       7.27454000       9.06590000       2.01628155       0.49042048       0.80322233       0.04140350       0.49316700       0.52373500
Cu       7.21517000       7.31916000      10.89920000       1.14619896      -1.05582278       0.55629740       0.03100520      -0.26901300      -0.60566900
Cu       8.97030000       7.07525000      12.61590000       0.37730146      -0.13371922       0.98088883       0.11692700       0.36881700       0.55026000
Cu       8.95003000       8.98275000      14.40660000       3.47843485       1.60055760       0.02508311       0.29451600      -0.17042800       0.81803900
Cu       7.22736000      10.84930000       0.03291250      -2.61348889      -2.94007877       0.23164443       0.02855820       0.07237380      -0.12839100
Cu       7.23197000       9.10854000       1.85107000      -1.76161092      -0.34143046       0.11837468       0.69333300       0.29052700      -0.25736700
Cu       9.20076000      10.93720000       1.69704000       0.76936199      -0.35367103      -1.79358222      -1.55011000      -1.75194000       0.26026600
Cu       9.25478000       8.87593000       3.73876000      -3.84244319       1.03345840       1.57913773      -0.11145800       0.96608200      -0.57252100
Cu       7.23467000      10.92110000       3.64539000       2.95409129       1.63652693      -1.94053894       0.01142390       0.12076700      -0.24819000
Cu       7.22015000       9.17308000       5.35942000       1.55156556       0.03001052       0.82224209       0.05157100      -0.10348700       0.56897300
Cu       9.09787000      10.86220000       5.43432000       1.44587007       0.03044060      -0.43302546       0.11070900      -0.27664500      -0.07789580
Cu       9.13594000       8.96485000       7.31948000       0.26079382       0.08633869      -1.70712644      -0.77106200       0.65583300      -0.19279100
Cu       7.34913000      10.90520000       7.36216000      -0.78679030      -2.67536132       1.60072580      -0.72696100      -0.20907700      -1.01427000
Cu       7.19623000       9.23544000       9.18604000      -1.00140299       0.81975787       1.82250648      -0.03666860      -0.84801500      -0.97300600
Cu       9.02600000      10.89550000       9.00682000       0.59614185       0.06611435       1.66000403       1.01940000      -0.21570400       0.71768000
Cu       9.09979000       9.06475000      10.83770000      -2.02439406      -0.29943886      -1.33862841      -0.28836400       0.09958520      -0.26864100
Cu       7.16646000      10.75080000      10.98670000       0.06744508       0.13242019       1.00302679       0.29014200       1.03346000      -0.52118600
Cu       7.30206000       9.01412000      12.69180000      -0.65530169      -2.90949190      -0.62378712      -0.78715300      -0.09487780       0.17918000
Cu       9.01430000      10.78170000      12.62840000       2.37721697      -0.89375377       1.57699639       0.09918900       0.24068900       0.15628900
Cu       8.97674000      12.67370000      14.44450000       1.14853438       0.45737980      -2.25343330       0.09603280       0.07879060      -0.22783700
Cu       7.13711000      12.73900000       1.84934000       1.44286831       0.66114994      -0.13657995       0.16473800      -0.32234000      -0.67263300
Cu       9.12103000      12.58660000       3.41094000      -0.69468682       0.90407878       0.98011251      -0.50002900       0.94211800       0.63648900
Cu       7.27904000      12.67960000       5.41270000      -0.75061395       0.08293842      -2.07591560       0.05458700      -0.40123900      -0.16345700
Cu       9.20450000      12.58820000       7.16216000       2.24337353       0.02488094      -1.31986096      -0.20285900       0.66473200       0.06333790
Cu       7.26915000      12.60050000       9.19640000      -1.02203361       0.80328056      -3.36015010      -0.27208300       0.25954200      -0.24911600
Cu       9.04523000      12.71000000      10.84790000       0.29103135      -1.01621123       4.11188324      -0.35143300      -0.04390400       0.12350200